LAMMPS data file. CGCMM style. atom_style atomic generated by VMD/TopoTools v1.6 on Wed Oct 05 14:47:25 EDT 2016
 49152 atoms
 0 bonds
 0 angles
 0 dihedrals
 0 impropers
 1 atom types
 0 bond types
 0 angle types
 0 dihedral types
 0 improper types
 -116.9267 116.9267  xlo xhi
 -116.9267 116.9267  ylo yhi
 -116.9267 116.9267  zlo zhi

# Pair Coeffs
#
# 1  C

 Masses

 1 12.010700 # C

 Atoms

1 1 42.753274 42.693423 96.734428 #C
2 1 73.822204 19.874122 73.885022 #C
3 1 96.653045 42.608649 42.607845 #C
4 1 73.846927 73.838678 19.835159 #C
5 1 42.636356 96.669332 42.576983 #C
6 1 19.939466 73.913748 73.985302 #C
7 1 23.609379 53.443080 106.656600 #C
8 1 53.439967 23.538835 106.632530 #C
9 1 49.327138 49.288961 77.261564 #C
10 1 63.053817 9.903688 93.044784 #C
11 1 92.970194 9.877386 63.066291 #C
12 1 67.210463 39.408914 67.247270 #C
13 1 106.578419 23.457816 53.373532 #C
14 1 106.585505 53.374227 23.462581 #C
15 1 77.192874 49.252844 49.239833 #C
16 1 92.994719 63.059959 9.868147 #C
17 1 63.057598 92.980510 9.861204 #C
18 1 67.217139 67.218483 39.358115 #C
19 1 53.368751 106.582383 23.435107 #C
20 1 23.502239 106.604503 53.364392 #C
21 1 49.276489 77.216566 49.232818 #C
22 1 9.919637 93.045379 63.129687 #C
23 1 9.960912 63.120080 93.136680 #C
24 1 39.461630 67.251354 67.281641 #C
25 1 50.830806 36.305907 91.814596 #C
26 1 36.398221 50.800842 91.839219 #C
27 1 40.938473 40.907365 106.632568 #C
28 1 80.225270 24.796772 65.707569 #C
29 1 65.674176 24.828400 80.307907 #C
30 1 75.644602 9.895745 75.698800 #C
31 1 91.736994 50.751962 36.222094 #C
32 1 91.730229 36.230454 50.749277 #C
33 1 106.579652 40.783281 40.788943 #C
34 1 65.688071 80.238620 24.761968 #C
35 1 80.249118 65.685948 24.767178 #C
36 1 75.665895 75.659217 9.873644 #C
37 1 36.283048 91.767643 50.731363 #C
38 1 50.762811 91.742276 36.194175 #C
39 1 40.798164 106.588698 40.760427 #C
40 1 24.909673 65.731362 80.396813 #C
41 1 24.863223 80.307417 65.765898 #C
42 1 9.938093 75.760354 75.824737 #C
43 1 12.280972 56.873069 111.557684 #C
44 1 32.110677 47.557239 111.557759 #C
45 1 26.245908 55.185703 96.804962 #C
46 1 47.542956 32.087554 111.552099 #C
47 1 56.868039 12.242738 111.538255 #C
48 1 55.193875 26.136767 96.758625 #C
49 1 39.951135 54.117532 82.110639 #C
50 1 54.135438 39.873311 82.080932 #C
51 1 53.626452 53.610685 67.744862 #C
52 1 59.574543 4.943825 104.267745 #C
53 1 69.020169 4.924915 84.513632 #C
54 1 61.262587 19.867712 90.493536 #C
55 1 84.457022 4.917982 69.041457 #C
56 1 104.223838 4.925422 59.576501 #C
57 1 90.399253 19.817278 61.275799 #C
58 1 62.332000 34.592627 76.753395 #C
59 1 76.683486 34.551017 62.350949 #C
60 1 62.884018 48.899580 62.900047 #C
61 1 111.507242 12.200266 56.846503 #C
62 1 111.523708 31.965485 47.422741 #C
63 1 96.671588 26.061542 55.155588 #C
64 1 111.525556 47.419982 31.975262 #C
65 1 111.512411 56.847101 12.203003 #C
66 1 96.683679 55.156632 26.054885 #C
67 1 82.004480 39.812854 54.091870 #C
68 1 82.010231 54.095884 39.793097 #C
69 1 67.710038 53.591319 53.579400 #C
70 1 104.236416 59.576165 4.922627 #C
71 1 84.478080 69.025992 4.910093 #C
72 1 90.422313 61.269400 19.801210 #C
73 1 69.022908 84.470034 4.908459 #C
74 1 59.574354 104.228762 4.916766 #C
75 1 61.269296 90.407662 19.789243 #C
76 1 76.695427 62.338131 34.517873 #C
77 1 62.337996 76.693182 34.514656 #C
78 1 62.884859 62.888466 48.860961 #C
79 1 56.843228 111.508379 12.190230 #C
80 1 47.412520 111.527072 31.950593 #C
81 1 55.156949 96.677611 26.028340 #C
82 1 31.983109 111.532516 47.411662 #C
83 1 12.227797 111.525058 56.844706 #C
84 1 26.129307 96.721310 55.146410 #C
85 1 54.104079 82.017229 39.780820 #C
86 1 39.863531 82.050401 54.084583 #C
87 1 53.604061 67.727616 53.580520 #C
88 1 4.949944 104.260180 59.598722 #C
89 1 4.940140 84.561230 69.158055 #C
90 1 19.885614 90.475553 61.308615 #C
91 1 4.950754 69.138435 84.631290 #C
92 1 4.979828 59.599312 104.312780 #C
93 1 19.963554 61.296111 90.579905 #C
94 1 34.611213 76.747300 62.375886 #C
95 1 34.667881 62.358860 76.810443 #C
96 1 48.926817 62.902810 62.911493 #C
97 1 38.378999 45.706327 99.214932 #C
98 1 45.746991 38.307943 99.206040 #C
99 1 44.065716 44.003790 91.807065 #C
100 1 70.809076 17.387608 78.291403 #C
101 1 78.217720 17.375986 70.858869 #C
102 1 72.502390 24.829215 72.562831 #C
103 1 99.131202 38.213410 45.618864 #C
104 1 99.134105 45.618309 38.214508 #C
105 1 91.720732 43.934708 43.929996 #C
106 1 78.245749 70.824581 17.347179 #C
107 1 70.830067 78.234257 17.344920 #C
108 1 72.524118 72.517564 24.784022 #C
109 1 45.634202 99.143045 38.180301 #C
110 1 38.249477 99.152076 45.591248 #C
111 1 43.964638 91.740162 43.903352 #C
112 1 17.435570 78.315975 70.957859 #C
113 1 17.453000 70.901560 78.402559 #C
114 1 24.898087 72.580902 72.646409 #C
115 1 28.827288 51.139640 104.183496 #C
116 1 19.309500 55.949157 104.201791 #C
117 1 22.648294 53.125653 111.561813 #C
118 1 55.949801 19.221253 104.162221 #C
119 1 51.146682 28.749764 104.162259 #C
120 1 53.107914 22.613855 111.549681 #C
121 1 53.812667 46.733748 74.871821 #C
122 1 46.779663 53.794530 74.886379 #C
123 1 47.382660 47.333546 82.067833 #C
124 1 65.370116 12.395806 87.853051 #C
125 1 60.501541 12.404676 97.365589 #C
126 1 63.402312 4.929452 93.943834 #C
127 1 97.286182 12.365033 60.509283 #C
128 1 87.772444 12.370883 65.393240 #C
129 1 93.887210 4.916128 63.408158 #C
130 1 69.809640 41.773705 62.685344 #C
131 1 62.666552 41.798344 69.852971 #C
132 1 69.166303 34.599745 69.212819 #C
133 1 104.099963 28.656966 51.057875 #C
134 1 104.094273 19.155474 55.917621 #C
135 1 111.520551 22.531665 53.033910 #C
136 1 104.104928 55.918422 19.155059 #C
137 1 104.106538 51.057873 28.661314 #C
138 1 111.524160 53.034464 22.539751 #C
139 1 74.816344 53.774956 46.671104 #C
140 1 74.814351 46.691242 53.767889 #C
141 1 81.988266 47.288116 47.276868 #C
142 1 87.800469 65.379786 12.356626 #C
143 1 97.307113 60.506500 12.356635 #C
144 1 93.907457 63.404202 4.911152 #C
145 1 60.505371 97.292584 12.345210 #C
146 1 65.379281 87.785476 12.350696 #C
147 1 63.399171 93.897839 4.907586 #C
148 1 62.669920 69.817461 41.735869 #C
149 1 69.814382 62.671466 41.735287 #C
150 1 69.177967 69.176817 34.548156 #C
151 1 51.056389 104.105961 28.628859 #C
152 1 55.915503 104.097561 19.131231 #C
153 1 53.024274 111.522776 22.518732 #C
154 1 19.211605 104.132758 55.911321 #C
155 1 28.702677 104.126220 51.042374 #C
156 1 22.557732 111.533873 53.030546 #C
157 1 46.723617 74.848293 53.764435 #C
158 1 53.785973 74.830320 46.667734 #C
159 1 47.315621 82.011861 47.263400 #C
160 1 12.419623 87.861871 65.473634 #C
161 1 12.418557 97.349420 60.540031 #C
162 1 4.938754 93.956462 63.482246 #C
163 1 12.481857 60.534063 97.442133 #C
164 1 12.458106 65.450852 87.960058 #C
165 1 4.959619 63.482076 94.027149 #C
166 1 41.849591 62.689223 69.886253 #C
167 1 41.819177 69.853692 62.703633 #C
168 1 34.661611 69.219258 69.262293 #C
169 1 54.592140 33.013429 89.383074 #C
170 1 48.304699 41.034876 89.355816 #C
171 1 49.551964 34.860209 96.738467 #C
172 1 41.111350 48.260713 89.368533 #C
173 1 33.115989 54.577657 89.424733 #C
174 1 34.949662 49.522565 96.759075 #C
175 1 44.887846 37.340898 104.158125 #C
176 1 37.396201 44.859866 104.164699 #C
177 1 40.467484 40.463830 111.553482 #C
178 1 83.539107 27.226459 61.885931 #C
179 1 75.484339 27.276875 68.270407 #C
180 1 81.666563 19.849865 67.006287 #C
181 1 68.225920 27.294201 75.554487 #C
182 1 61.868863 27.277077 83.628306 #C
183 1 66.969635 19.875861 81.750226 #C
184 1 79.196488 12.386339 71.724814 #C
185 1 71.678534 12.394833 79.265071 #C
186 1 76.114183 4.922257 76.156410 #C
187 1 89.304726 54.552511 32.927020 #C
188 1 89.275405 48.207207 40.958115 #C
189 1 96.664962 49.455927 34.772219 #C
190 1 89.271928 40.966911 48.202395 #C
191 1 89.294889 32.941219 54.550509 #C
192 1 96.658723 34.774612 49.454870 #C
193 1 104.099291 44.749962 37.235064 #C
194 1 104.097063 37.229830 44.752929 #C
195 1 111.524247 40.318152 40.325469 #C
196 1 61.876238 83.548889 27.193118 #C
197 1 68.242272 75.498325 27.235939 #C
198 1 66.985661 81.681282 19.819161 #C
199 1 75.505548 68.238936 27.238288 #C
200 1 83.558282 61.875862 27.201515 #C
201 1 81.694443 66.982905 19.824200 #C
202 1 71.697385 79.212548 12.362530 #C
203 1 79.223507 71.692850 12.364329 #C
204 1 76.127831 76.125087 4.910561 #C
205 1 33.005404 89.346587 54.541042 #C
206 1 41.008421 89.301784 48.182058 #C
207 1 34.823908 96.689971 49.433404 #C
208 1 48.226838 89.288255 40.932975 #C
209 1 54.556908 89.304122 32.905492 #C
210 1 49.465319 96.669245 34.739154 #C
211 1 37.258469 104.112653 44.726571 #C
212 1 44.760387 104.106088 37.201627 #C
213 1 40.322252 111.529098 40.304969 #C
214 1 27.369948 61.899744 83.705627 #C
215 1 27.368058 68.288923 75.634867 #C
216 1 19.951779 67.042841 81.853202 #C
217 1 27.343190 75.561052 68.334969 #C
218 1 27.295692 83.614710 61.916222 #C
219 1 19.912766 81.757011 67.082189 #C
220 1 12.447722 71.785449 79.387071 #C
221 1 12.434853 79.304114 71.838399 #C
222 1 4.945451 76.239354 76.288318 #C
223 1 6.228101 57.845795 113.988939 #C
224 1 17.089737 55.218435 113.995970 #C
225 1 13.532384 57.331381 106.660676 #C
226 1 27.189297 50.538087 113.996534 #C
227 1 36.258080 44.122446 113.994443 #C
228 1 32.796889 47.878309 106.642569 #C
229 1 20.767163 56.902035 99.282949 #C
230 1 30.017633 51.972681 99.246038 #C
231 1 27.920103 56.553512 91.902440 #C
232 1 44.100885 36.262160 113.993035 #C
233 1 50.507911 27.180063 113.992110 #C
234 1 47.886074 32.741610 106.631578 #C
235 1 55.199244 17.075534 113.988152 #C
236 1 57.844345 6.209858 113.977696 #C
237 1 57.331307 13.457047 106.620905 #C
238 1 51.988088 29.921877 99.217071 #C
239 1 56.904795 20.658815 99.227914 #C
240 1 56.559359 27.807347 91.846709 #C
241 1 34.994384 56.282586 84.566155 #C
242 1 42.818447 49.911751 84.500273 #C
243 1 42.005866 56.084056 77.305496 #C
244 1 49.949371 42.749035 84.486287 #C
245 1 56.290664 34.899731 84.520454 #C
246 1 56.092937 41.941054 77.275276 #C
247 1 48.973140 55.953734 70.126739 #C
248 1 55.962030 48.940066 70.113039 #C
249 1 55.910716 55.904081 63.009552 #C
250 1 58.578690 2.472213 110.254119 #C
251 1 61.282928 2.460512 99.438356 #C
252 1 59.098235 9.923334 103.098838 #C
253 1 66.038925 2.455461 89.392239 #C
254 1 72.477681 2.453757 80.354639 #C
255 1 68.665260 9.899554 83.863844 #C
256 1 59.528894 17.387417 95.962184 #C
257 1 64.511012 17.384019 86.693404 #C
258 1 59.877413 24.811249 88.846724 #C
259 1 80.312329 2.451996 72.502249 #C
260 1 89.343801 2.450311 66.045264 #C
261 1 83.792724 9.885934 68.696294 #C
262 1 99.398859 2.452457 61.282216 #C
263 1 110.231578 2.462201 58.579302 #C
264 1 103.032909 9.886519 59.101470 #C
265 1 86.605043 17.349913 64.535869 #C
266 1 95.870257 17.332750 59.534751 #C
267 1 88.750015 24.749914 59.885346 #C
268 1 60.149177 32.154876 81.758575 #C
269 1 66.566428 32.179619 73.837614 #C
270 1 60.351564 39.398391 74.698103 #C
271 1 73.774400 32.159705 66.603770 #C
272 1 81.674804 32.097084 60.158394 #C
273 1 74.638153 39.352450 60.361198 #C
274 1 60.491760 46.541424 67.653356 #C
275 1 67.621449 46.514329 60.500846 #C
276 1 60.581487 53.598290 60.587746 #C
277 1 113.961516 6.189131 57.838568 #C
278 1 113.972867 17.016874 55.150539 #C
279 1 106.561417 13.407794 57.318477 #C
280 1 113.977342 27.074865 50.407787 #C
281 1 113.978171 36.117127 43.969448 #C
282 1 106.579903 32.631516 47.768626 #C
283 1 99.141113 20.591502 56.887425 #C
284 1 99.139820 29.836819 51.911983 #C
285 1 91.752598 27.734510 56.539350 #C
286 1 113.978634 43.964134 36.126570 #C
287 1 113.978712 50.406993 27.085098 #C
288 1 106.583528 47.766629 32.638720 #C
289 1 113.975066 55.151434 17.023708 #C
290 1 113.964401 57.838690 6.190298 #C
291 1 106.571677 57.318865 13.406487 #C
292 1 99.148343 51.912808 29.835742 #C
293 1 99.154958 56.887959 20.585150 #C
294 1 91.765485 56.540206 27.720885 #C
295 1 84.435799 34.832048 56.269216 #C
296 1 84.406327 42.690944 49.864392 #C
297 1 77.210473 41.886242 56.070669 #C
298 1 84.409622 49.871177 42.677510 #C
299 1 84.444610 56.270816 34.811354 #C
300 1 77.214550 56.073512 41.861807 #C
301 1 70.072822 48.904138 55.939086 #C
302 1 70.074000 55.943722 48.882327 #C
303 1 62.995834 55.892993 55.884492 #C
304 1 110.237531 58.579281 2.461151 #C
305 1 99.412950 61.281941 2.450471 #C
306 1 103.048025 59.100761 9.881537 #C
307 1 89.361692 66.038974 2.447042 #C
308 1 80.325703 72.483178 2.447021 #C
309 1 83.819758 68.675896 9.871163 #C
310 1 95.889893 59.532606 17.321831 #C
311 1 86.632810 64.521682 17.331312 #C
312 1 88.768343 59.881390 24.731227 #C
313 1 72.480237 80.322886 2.446615 #C
314 1 66.032109 89.355599 2.445751 #C
315 1 68.676347 83.807429 9.868065 #C
316 1 61.276850 99.407464 2.448142 #C
317 1 58.578762 110.234078 2.457703 #C
318 1 59.100177 103.036252 9.869679 #C
319 1 64.522341 86.617560 17.323719 #C
320 1 59.532322 95.875305 17.306645 #C
321 1 59.881379 88.756947 24.718309 #C
322 1 81.687618 60.152794 32.070576 #C
323 1 73.789916 66.576836 32.118742 #C
324 1 74.644283 60.354569 39.320506 #C
325 1 66.578185 73.786224 32.116906 #C
326 1 60.152718 81.683009 32.063528 #C
327 1 60.353956 74.646381 39.319698 #C
328 1 67.622930 60.494300 46.481931 #C
329 1 60.492789 67.628363 46.484479 #C
330 1 60.582260 60.585007 53.572010 #C
331 1 57.837518 113.961875 6.184683 #C
332 1 55.141948 113.973774 17.011174 #C
333 1 57.317177 106.563133 13.389167 #C
334 1 50.393221 113.978792 27.066627 #C
335 1 43.956288 113.980276 36.108678 #C
336 1 47.766825 106.586079 32.606592 #C
337 1 56.887147 99.144817 20.562451 #C
338 1 51.915071 99.147419 29.803341 #C
339 1 56.541146 91.758771 27.700342 #C
340 1 36.120787 113.981642 43.959111 #C
341 1 27.087926 113.982940 50.406432 #C
342 1 32.663536 106.596783 47.749793 #C
343 1 17.032605 113.980717 55.151840 #C
344 1 6.203280 113.971273 57.837967 #C
345 1 13.457122 106.597174 57.315594 #C
346 1 29.892552 99.175453 51.895693 #C
347 1 20.661214 99.194294 56.882873 #C
348 1 27.807706 91.812744 56.534265 #C
349 1 56.273734 84.444596 34.798292 #C
350 1 49.889516 84.423879 42.659773 #C
351 1 56.078125 77.221579 41.857555 #C
352 1 42.731269 84.439301 49.850141 #C
353 1 34.895578 84.493317 56.264809 #C
354 1 41.932725 77.257634 56.067927 #C
355 1 55.949514 70.085431 48.884165 #C
356 1 48.930701 70.103643 55.938551 #C
357 1 55.899423 63.006428 55.886350 #C
358 1 2.475150 110.248538 58.585519 #C
359 1 2.464356 99.444347 61.332803 #C
360 1 9.933890 103.079701 59.114270 #C
361 1 2.461744 89.428387 66.146906 #C
362 1 2.463634 80.431377 72.632562 #C
363 1 9.926516 83.895142 68.802779 #C
364 1 17.401361 95.936715 59.550623 #C
365 1 17.410489 86.691758 64.600567 #C
366 1 24.823938 88.823366 59.901376 #C
367 1 2.466312 72.608385 80.481369 #C
368 1 2.469687 66.147429 89.488382 #C
369 1 9.947353 68.769940 83.982890 #C
370 1 2.477134 61.339698 99.492966 #C
371 1 2.491692 58.585712 110.274794 #C
372 1 9.993933 59.112026 103.155371 #C
373 1 17.462706 64.575280 86.794916 #C
374 1 17.488037 59.545453 96.037865 #C
375 1 24.916754 59.893953 88.922685 #C
376 1 32.163770 81.743302 60.172521 #C
377 1 32.222497 73.839979 66.651156 #C
378 1 39.404226 74.692725 60.372280 #C
379 1 32.250030 66.615276 73.901160 #C
380 1 32.245384 60.164167 81.820877 #C
381 1 39.463298 60.364501 74.740219 #C
382 1 46.547632 67.655468 60.508451 #C
383 1 46.578539 60.502594 67.674704 #C
384 1 53.611264 60.590470 60.591958 #C
385 1 44.850995 41.133703 95.498282 #C
386 1 41.202761 44.798005 95.503478 #C
387 1 42.194408 42.138480 99.207474 #C
388 1 75.383241 21.112070 71.766047 #C
389 1 71.709884 21.119012 75.451913 #C
390 1 74.383979 17.384150 74.446445 #C
391 1 95.418154 44.720373 41.049146 #C
392 1 95.416522 41.051225 44.718781 #C
393 1 99.130833 42.044776 42.045857 #C
394 1 71.732313 75.399550 21.074114 #C
395 1 75.408848 71.725762 21.075319 #C
396 1 74.409194 74.400625 17.348892 #C
397 1 41.085172 95.437239 44.690487 #C
398 1 44.743652 95.431857 41.017770 #C
399 1 42.070364 99.145417 42.014040 #C
400 1 21.187647 71.795350 75.551002 #C
401 1 21.177388 75.473171 71.858096 #C
402 1 17.445757 74.481934 74.554386 #C
403 1 20.886148 54.461740 107.887685 #C
404 1 25.751955 52.086474 107.883716 #C
405 1 24.178346 53.744938 104.193939 #C
406 1 52.080930 25.691966 107.865681 #C
407 1 54.455925 20.821721 107.863348 #C
408 1 53.746876 24.093936 104.164030 #C
409 1 47.040309 50.541753 78.464963 #C
410 1 50.575221 46.991889 78.457673 #C
411 1 50.357166 50.324790 74.872269 #C
412 1 62.025317 8.660703 95.747403 #C
413 1 64.433311 8.655677 90.893395 #C
414 1 62.737936 12.397899 92.501679 #C
415 1 90.822049 8.635225 64.448022 #C
416 1 95.678337 8.635075 62.033743 #C
417 1 92.420168 12.365307 62.752143 #C
418 1 65.941994 38.214704 69.569982 #C
419 1 69.524454 38.203185 65.974838 #C
420 1 66.174209 41.795942 66.205852 #C
421 1 107.814119 20.748890 54.401107 #C
422 1 107.818082 25.601862 51.998438 #C
423 1 104.099409 24.014218 53.686079 #C
424 1 107.823590 51.998623 25.608600 #C
425 1 107.821093 54.402001 20.753462 #C
426 1 104.108063 53.686878 24.016634 #C
427 1 78.388264 46.948564 50.498717 #C
428 1 78.389605 50.508818 46.933172 #C
429 1 74.810666 50.293000 50.279632 #C
430 1 95.700351 62.029904 8.627869 #C
431 1 90.847144 64.439544 8.625889 #C
432 1 92.445535 62.745185 12.354167 #C
433 1 64.436788 90.833826 8.620684 #C
434 1 62.027146 95.687247 8.620753 #C
435 1 62.743747 92.430178 12.345687 #C
436 1 69.532716 65.949909 38.157488 #C
437 1 65.949103 69.533473 38.157237 #C
438 1 66.178795 66.181113 41.746771 #C
439 1 54.395857 107.817223 20.729281 #C
440 1 51.992292 107.822122 25.580502 #C
441 1 53.683362 104.104069 23.987737 #C
442 1 25.639953 107.838939 51.988415 #C
443 1 20.790801 107.839179 54.394626 #C
444 1 24.066129 104.131662 53.675597 #C
445 1 50.528212 78.408689 46.924510 #C
446 1 46.978887 78.417266 50.490781 #C
447 1 50.314242 74.833702 50.275369 #C
448 1 8.673563 95.744636 62.087211 #C
449 1 8.672323 90.903960 64.526886 #C
450 1 12.415864 92.496777 62.808754 #C
451 1 8.704178 64.515101 90.992409 #C
452 1 8.714121 62.082282 95.829071 #C
453 1 12.466955 62.796493 92.594702 #C
454 1 38.257131 69.572779 66.008379 #C
455 1 38.272033 65.980460 69.611342 #C
456 1 41.843012 66.209301 66.233505 #C
457 1 48.886409 37.935141 93.037837 #C
458 1 52.018638 33.857105 93.048877 #C
459 1 51.569887 37.117998 89.365620 #C
460 1 33.955731 51.995236 93.079232 #C
461 1 38.020608 48.848560 93.055255 #C
462 1 37.208816 51.541630 89.391942 #C
463 1 38.852346 42.638778 107.868024 #C
464 1 42.657701 38.821155 107.865682 #C
465 1 41.285192 41.243586 104.159661 #C
466 1 78.589195 23.573854 67.680200 #C
467 1 82.677738 23.552777 64.501945 #C
468 1 79.417473 27.254151 64.956953 #C
469 1 64.474077 23.590353 82.765148 #C
470 1 67.638885 23.596668 78.667785 #C
471 1 64.926367 27.288440 79.498102 #C
472 1 73.921037 8.650664 77.790191 #C
473 1 77.733422 8.647641 73.967246 #C
474 1 75.297103 12.391860 75.355321 #C
475 1 92.959731 48.789037 37.851623 #C
476 1 92.972093 51.949799 33.771775 #C
477 1 89.287945 51.500451 37.035537 #C
478 1 92.963815 33.779712 51.947750 #C
479 1 92.954667 37.857501 48.786461 #C
480 1 89.281163 37.046905 51.497108 #C
481 1 107.818750 38.693552 42.514503 #C
482 1 107.819554 42.509205 38.700508 #C
483 1 104.097232 41.130095 41.134467 #C
484 1 67.655842 78.603906 23.538054 #C
485 1 64.486273 82.690229 23.520234 #C
486 1 64.938512 79.429945 27.218029 #C
487 1 82.702180 64.484834 23.527049 #C
488 1 78.614361 67.652425 23.541850 #C
489 1 79.438616 64.936938 27.223059 #C
490 1 77.755361 73.934097 8.629802 #C
491 1 73.938340 77.747851 8.629142 #C
492 1 75.320681 75.312853 12.365042 #C
493 1 37.903980 92.985913 48.764713 #C
494 1 33.837212 93.004767 51.931720 #C
495 1 37.099993 89.321281 51.481668 #C
496 1 51.957018 92.974108 33.743320 #C
497 1 48.803758 92.967899 37.821712 #C
498 1 51.511291 89.293744 37.011105 #C
499 1 42.517636 107.826075 38.671881 #C
500 1 38.710178 107.828397 42.489601 #C
501 1 41.149284 104.108204 41.103730 #C
502 1 23.673180 67.707081 78.761114 #C
503 1 23.675503 64.526922 82.855943 #C
504 1 27.370231 64.975712 79.579210 #C
505 1 23.619629 82.760450 64.555438 #C
506 1 23.639626 78.674302 67.751075 #C
507 1 27.320598 79.495173 65.006508 #C
508 1 8.684958 77.850007 74.093203 #C
509 1 8.689549 74.039544 77.918420 #C
510 1 12.441958 75.407279 75.476284 #C
511 1 15.218537 56.185936 110.338095 #C
512 1 9.887985 57.576961 110.333381 #C
513 1 11.733629 56.809156 113.993221 #C
514 1 34.441063 45.969849 110.331457 #C
515 1 30.005871 49.146697 110.334968 #C
516 1 31.865621 47.527692 113.995545 #C
517 1 28.881978 54.195368 95.563244 #C
518 1 24.354127 56.717916 95.589945 #C
519 1 25.496632 54.619571 99.265402 #C
520 1 49.135530 29.969735 110.326048 #C
521 1 45.965745 34.413681 110.326263 #C
522 1 47.499790 31.861959 113.992674 #C
523 1 57.575976 9.838956 110.306589 #C
524 1 56.179449 15.170614 110.316029 #C
525 1 56.800130 11.717848 113.983645 #C
526 1 56.722267 24.240187 95.532901 #C
527 1 54.207701 28.774811 95.521966 #C
528 1 54.627082 25.392990 99.224305 #C
529 1 42.356152 52.962357 80.889729 #C
530 1 38.506838 56.174671 80.925384 #C
531 1 38.988131 53.204169 84.527438 #C
532 1 56.183339 38.426316 80.887044 #C
533 1 52.985516 42.287726 80.867640 #C
534 1 53.226173 38.904834 84.498541 #C
535 1 55.923606 52.427176 66.557246 #C
536 1 52.446009 55.916014 66.563495 #C
537 1 52.510786 52.489759 70.115491 #C
538 1 60.275656 6.180946 101.361464 #C
539 1 58.850694 6.192635 106.673568 #C
540 1 59.647763 2.465648 104.769135 #C
541 1 70.603410 6.164483 82.195349 #C
542 1 67.414134 6.165811 86.624763 #C
543 1 69.067933 2.454466 84.735851 #C
544 1 62.260773 21.109019 87.855778 #C
545 1 59.713037 21.107260 92.401306 #C
546 1 61.838996 17.382755 91.225787 #C
547 1 86.562327 6.155093 67.433293 #C
548 1 82.137202 6.157978 70.632940 #C
549 1 84.688559 2.450975 69.082600 #C
550 1 106.627726 6.168402 58.852583 #C
551 1 101.307965 6.159318 60.278926 #C
552 1 104.737736 2.456464 59.647702 #C
553 1 92.304413 21.047864 59.720020 #C
554 1 87.762447 21.062025 62.278427 #C
555 1 91.134480 17.338082 61.853535 #C
556 1 63.497144 35.805705 74.319567 #C
557 1 60.258515 35.789587 78.225223 #C
558 1 63.251413 32.170893 77.717541 #C
559 1 78.152431 35.736774 60.268049 #C
560 1 74.257403 35.773335 63.520944 #C
561 1 77.643389 32.131608 63.274662 #C
562 1 64.109290 50.065051 60.549092 #C
563 1 60.540826 50.080006 64.127460 #C
564 1 64.006988 46.540164 64.028184 #C
565 1 110.278358 15.117378 56.147500 #C
566 1 110.267334 9.802962 57.566332 #C
567 1 113.967945 11.679690 56.776458 #C
568 1 110.291500 34.287024 45.837036 #C
569 1 110.291210 29.858908 49.025602 #C
570 1 113.977948 31.734769 47.380463 #C
571 1 95.435419 28.697513 54.158507 #C
572 1 95.440010 24.168589 56.703381 #C
573 1 99.143176 25.316303 54.580500 #C
574 1 110.294081 49.024013 29.868166 #C
575 1 110.293234 45.833278 34.296101 #C
576 1 113.978870 47.377589 31.745145 #C
577 1 110.274244 57.566617 9.803143 #C
578 1 110.284366 56.148326 15.120876 #C
579 1 113.970507 56.777028 11.683804 #C
580 1 95.453899 56.704037 24.158765 #C
581 1 95.446377 54.159804 28.690492 #C
582 1 99.154377 54.581499 25.312934 #C
583 1 80.794295 42.232185 52.930888 #C
584 1 80.811398 38.364230 56.161420 #C
585 1 84.418099 38.841188 53.172444 #C
586 1 80.817770 56.163585 38.341072 #C
587 1 80.798552 52.936539 42.213438 #C
588 1 84.424384 53.176504 38.824071 #C
589 1 66.530724 55.905884 52.385852 #C
590 1 66.530004 52.402881 55.899927 #C
591 1 70.070891 52.466259 52.453427 #C
592 1 101.323882 60.277991 6.155316 #C
593 1 106.638657 58.852317 6.165579 #C
594 1 104.747974 59.647841 2.454986 #C
595 1 82.159053 70.611976 6.147208 #C
596 1 86.585733 67.420129 6.146387 #C
597 1 84.705276 69.070443 2.446909 #C
598 1 87.786498 62.269003 21.043021 #C
599 1 92.324080 59.716983 21.033210 #C
600 1 91.159048 61.846535 17.323533 #C
601 1 67.417029 86.575531 6.143812 #C
602 1 70.611231 82.150782 6.145719 #C
603 1 69.065000 84.700325 2.446077 #C
604 1 58.851698 106.630520 6.157441 #C
605 1 60.275577 101.314157 6.148721 #C
606 1 59.645261 104.743529 2.452095 #C
607 1 59.716861 92.310435 21.018536 #C
608 1 62.269268 87.772406 21.032787 #C
609 1 61.846192 91.143528 17.312500 #C
610 1 74.268374 63.504131 35.736419 #C
611 1 78.161855 60.261836 35.707098 #C
612 1 77.658448 63.259099 32.098690 #C
613 1 60.261546 78.160835 35.703334 #C
614 1 63.503892 74.267268 35.734559 #C
615 1 63.259474 77.653984 32.094643 #C
616 1 60.541336 64.114872 50.037113 #C
617 1 64.109874 60.543405 50.034921 #C
618 1 64.008645 64.012132 46.497067 #C
619 1 56.143167 110.280047 15.104217 #C
620 1 57.565001 110.268304 9.791109 #C
621 1 56.772091 113.968580 11.674948 #C
622 1 45.830391 110.296017 34.269384 #C
623 1 49.016740 110.294948 29.841442 #C
624 1 47.365632 113.979703 31.725958 #C
625 1 54.161709 95.442737 28.662739 #C
626 1 56.704034 95.444908 24.136275 #C
627 1 54.580906 99.148876 25.284590 #C
628 1 29.883537 110.303462 49.014628 #C
629 1 34.305205 110.301073 45.821027 #C
630 1 31.743824 113.982450 47.374960 #C
631 1 9.836125 110.290899 57.564553 #C
632 1 15.150696 110.299287 56.144677 #C
633 1 11.694840 113.976833 56.776590 #C
634 1 24.242021 95.497975 56.698409 #C
635 1 28.762740 95.482604 54.146963 #C
636 1 25.379855 99.187273 54.570103 #C
637 1 52.948119 80.809323 42.202086 #C
638 1 56.167410 80.821431 38.332518 #C
639 1 53.185987 84.431085 38.807618 #C
640 1 38.419831 80.864595 56.157750 #C
641 1 42.276126 80.834469 52.922851 #C
642 1 38.893252 84.462539 53.162476 #C
643 1 52.419288 66.551029 55.900571 #C
644 1 55.912069 66.542528 52.388640 #C
645 1 52.482010 70.090919 52.453293 #C
646 1 6.188958 101.354505 60.311294 #C
647 1 6.199758 106.660545 58.862552 #C
648 1 2.468826 104.767171 59.672657 #C
649 1 6.185262 82.247975 70.754339 #C
650 1 6.182247 86.658902 67.539202 #C
651 1 2.462424 84.792137 69.202366 #C
652 1 21.129908 87.842150 62.319037 #C
653 1 21.121067 92.375918 59.736288 #C
654 1 17.401721 91.211534 61.894661 #C
655 1 6.198735 67.522312 86.736759 #C
656 1 6.195189 70.723440 82.319507 #C
657 1 2.467761 69.191944 84.849830 #C
658 1 6.239607 58.861670 106.713783 #C
659 1 6.223774 60.311293 101.419222 #C
660 1 2.483673 59.676134 104.805038 #C
661 1 21.213303 59.729858 92.479298 #C
662 1 21.201599 62.301765 87.945295 #C
663 1 17.471228 61.881043 91.315820 #C
664 1 35.830993 74.317192 63.549788 #C
665 1 35.796650 78.214932 60.280744 #C
666 1 32.194836 77.711873 63.307396 #C
667 1 35.868037 60.272500 78.277820 #C
668 1 35.874308 63.528664 74.372355 #C
669 1 32.249605 63.285569 77.782535 #C
670 1 50.104344 60.550671 64.139558 #C
671 1 50.088417 64.131219 60.554966 #C
672 1 46.574368 64.031008 64.044330 #C
673 1 36.096126 47.148644 100.457536 #C
674 1 40.057080 43.711668 100.448024 #C
675 1 38.969778 46.242181 96.743120 #C
676 1 43.757296 39.996387 100.443891 #C
677 1 47.179878 36.021181 100.444871 #C
678 1 46.286212 38.894344 96.733151 #C
679 1 41.872052 45.444715 93.039976 #C
680 1 45.498577 41.801874 93.034302 #C
681 1 44.813832 44.753356 89.356401 #C
682 1 69.366818 16.140719 80.584151 #C
683 1 72.812499 16.139301 76.598921 #C
684 1 70.264034 19.877685 77.702003 #C
685 1 76.531289 16.133860 72.868212 #C
686 1 80.506640 16.124495 69.409746 #C
687 1 77.627629 19.864568 70.313905 #C
688 1 71.057187 23.596966 74.779436 #C
689 1 74.711857 23.589309 71.112051 #C
690 1 71.749958 27.290721 71.807887 #C
691 1 100.372992 35.924283 47.060907 #C
692 1 100.371306 39.897330 43.616782 #C
693 1 96.653799 38.807352 46.163183 #C
694 1 100.372686 43.615143 39.899510 #C
695 1 100.377109 47.060186 35.926364 #C
696 1 96.656952 46.163992 38.806070 #C
697 1 92.950230 41.726686 45.372100 #C
698 1 92.951937 45.375364 41.722359 #C
699 1 89.269753 44.691053 44.684453 #C
700 1 80.535545 69.381248 16.099978 #C
701 1 76.558136 72.828624 16.103727 #C
702 1 77.654876 70.279432 19.832799 #C
703 1 72.835602 76.548021 16.102656 #C
704 1 69.385164 80.522682 16.096671 #C
705 1 70.284793 77.643894 19.830400 #C
706 1 74.735806 71.072407 23.549780 #C
707 1 71.078239 74.727501 23.548563 #C
708 1 71.769466 71.764131 27.243086 #C
709 1 47.070774 100.383070 35.891508 #C
710 1 43.634499 100.383679 39.866077 #C
711 1 46.181689 96.666928 38.773009 #C
712 1 39.926691 100.387878 43.586784 #C
713 1 35.963919 100.395771 47.035829 #C
714 1 38.845893 96.677148 46.136371 #C
715 1 45.399653 92.966913 41.693232 #C
716 1 41.761843 92.972856 45.345825 #C
717 1 44.721165 89.290565 44.660760 #C
718 1 16.181429 80.605449 69.506143 #C
719 1 16.191936 76.632828 72.976163 #C
720 1 19.927720 77.720726 70.404680 #C
721 1 16.200105 72.911841 76.712540 #C
722 1 16.205921 69.458312 80.697645 #C
723 1 19.947241 70.349113 77.806299 #C
724 1 23.656305 74.795791 71.195529 #C
725 1 23.667500 71.135661 74.870405 #C
726 1 27.359488 71.821963 71.882781 #C
727 1 31.322754 49.872284 102.942832 #C
728 1 26.821805 52.669914 102.955562 #C
729 1 28.325175 50.852503 106.649883 #C
730 1 22.094294 55.092317 102.967161 #C
731 1 17.159462 57.106350 102.975268 #C
732 1 18.670008 55.614345 106.660582 #C
733 1 25.307633 51.933130 110.338146 #C
734 1 20.369211 54.291971 110.339621 #C
735 1 22.253786 53.114665 113.996884 #C
736 1 57.107575 17.064028 102.925963 #C
737 1 55.094721 22.001630 102.929176 #C
738 1 55.611864 18.596056 106.628927 #C
739 1 52.676251 26.734711 102.927710 #C
740 1 49.886434 31.244421 102.923958 #C